<UPF version="2.0.1">
   <PP_INFO>
         UPF file from ATOMPAW code with following input
           Br 35                                       ! Definition of material
           XC_LDA_X+XC_LDA_C_PW scalarrelativistic loggrid 608 200.0 2.2      ! All-electrons calc.: GGA- log.grid with 700 pts
           4 4 3 0 0 0                                 ! Max. n per angular momentum: 4s 3p 3d
           4 1 5
           3 2 10.0
           0 0 0
           c
           c
           c
           v
           c
           c
           v
           c
           1                                           ! Max. l for partial waves basis
           2.2 2.0 1.9 1.25                            ! r_PAW radius
           y                                           ! Do we add an additional s partial wave ? no
           2.0
           n
           y
           3.0
           n                                           ! Do we add an additional p partial wave ? no
           custom polynom2 7 10.0 vanderbiltortho besselshape         ! Scheme for PS partial waves and projectors
           2 0.00 ultrasoft                                       ! Scheme for pseudopotential (l_loc=3, E_loc=0Ry)
           2.2                                         ! r_c matching radius for first  s partial wav
           2.2                                         ! r_c matching radius for second s partial wave
           1.9                                         ! r_c matching radius for first  p partial wave
           1.9                                         ! r_c matching radius for second p partial wave
  </PP_INFO>
  <!--                               -->
  <!-- END OF HUMAN READABLE SECTION -->
  <PP_HEADER generated="Generated using ATOMPAW code"
             author="   "
             date=" 12/20/2021, 14:55:41.680"
             element="Br"
             pseudo_type="PAW"
             relativistic="scalar"
             is_ultrasoft="T"
             is_paw="T"
             is_coulomb="F"
             has_so="F"
             has_wfc="T"
             has_gipaw="T"
             paw_as_gipaw="T"
             core_correction="T"
             functional="SLA PW NOGX NOGC"
             z_valence=" 7.000"
             l_max="1"
             l_max_rho="2"
             mesh_size="   926"
             number_of_wfc="     4"
             number_of_proj=" 4"
                                    /> 
<PP_MESH dx=" 5.0000000000000E-03" mesh="  2342" xmin="-9.0000000000000E+00" zmesh=" 1.0000000000000E+00">
 <PP_R type="real" size="  2342" columns="3">
  1.23409804086679561E-04  1.24028398303918723E-04  1.24650093237575098E-04
  1.25274904430054836E-04  1.25902847501669837E-04  1.26533938151030049E-04
  1.27168192155434101E-04  1.27805625371265637E-04  1.28446253734387799E-04
  1.29090093260543438E-04  1.29737160045754042E-04  1.30387470266722709E-04
  1.31041040181239285E-04  1.31697886128585232E-04  1.32358024529943895E-04
  1.33021471888809209E-04  1.33688244791400229E-04  1.34358359907073928E-04
  1.35031833988742922E-04  1.35708683873294781E-04  1.36388926482011399E-04
  1.37072578820993893E-04  1.37759657981585904E-04  1.38450181140802666E-04
  1.39144165561758647E-04  1.39841628594101038E-04  1.40542587674441700E-04
  1.41247060326793878E-04  1.41955064163011146E-04  1.42666616883225714E-04
  1.43381736276293177E-04  1.44100440220235081E-04  1.44822746682688001E-04
  1.45548673721350582E-04  1.46278239484437121E-04  1.47011462211129457E-04
  1.47748360232033638E-04  1.48488951969639137E-04  1.49233255938777386E-04
  1.49981290747086982E-04  1.50733075095476504E-04  1.51488627778594351E-04
  1.52247967685296715E-04  1.53011113799120534E-04  1.53778085198758940E-04
  1.54548901058536309E-04  1.55323580648889854E-04  1.56102143336849121E-04
  1.56884608586522415E-04  1.57670995959581191E-04  1.58461325115751255E-04
  1.59255615813302416E-04  1.60053887909543179E-04  1.60856161361318153E-04
  1.61662456225504774E-04  1.62472792659517246E-04  1.63287190921808064E-04
  1.64105671372376748E-04  1.64928254473276656E-04  1.65754960789128676E-04
  1.66585810987633539E-04  1.67420825840089123E-04  1.68260026221910838E-04
  1.69103433113151392E-04  1.69951067599027504E-04  1.70802950870444946E-04
  1.71659104224530459E-04  1.72519549065162144E-04  1.73384306903505572E-04
  1.74253399358552304E-04  1.75126848157658422E-04  1.76004675137089983E-04
  1.76886902242566588E-04  1.77773551529812428E-04  1.78664645165105241E-04
  1.79560205425832969E-04  1.80460254701048437E-04  1.81364815492030072E-04
  1.82273910412845448E-04  1.83187562190914257E-04  1.84105793667579194E-04
  1.85028627798674325E-04  1.85956087655101689E-04  1.86888196423405309E-04
  1.87824977406353616E-04  1.88766454023519642E-04  1.89712649811867539E-04
  1.90663588426341900E-04  1.91619293640457025E-04  1.92579789346893662E-04
  1.93545099558093829E-04  1.94515248406863794E-04  1.95490260146974912E-04
  1.96470159153771184E-04  1.97454969924779446E-04  1.98444717080319615E-04
  1.99439425364122817E-04  2.00439119643947266E-04  2.01443824912202690E-04
  2.02453566286572438E-04  2.03468369010644169E-04  2.04488258454538490E-04
  2.05513260115544280E-04  2.06543399618757116E-04  2.07578702717717522E-04
  2.08619195295057662E-04  2.09664903363145387E-04  2.10715853064737628E-04
  2.11772070673630920E-04  2.12833582595321215E-04  2.13900415367661485E-04
  2.14972595661526222E-04  2.16050150281479393E-04  2.17133106166441818E-04
  2.18221490390367823E-04  2.19315330162918906E-04  2.20414652830147140E-04
  2.21519485875176076E-04  2.22629856918888969E-04  2.23745793720620553E-04
  2.24867324178848195E-04  2.25994476331892554E-04  2.27127278358615355E-04
  2.28265758579127069E-04  2.29409945455491727E-04  2.30559867592441628E-04
  2.31715553738089683E-04  2.32877032784649276E-04  2.34044333769157939E-04
  2.35217485874200243E-04  2.36396518428640720E-04  2.37581460908353829E-04
  2.38772342936964142E-04  2.39969194286583491E-04  2.41172044878558851E-04
  2.42380924784217215E-04  2.43595864225618791E-04  2.44816893576313714E-04
  2.46044043362098530E-04  2.47277344261782612E-04  2.48516827107951848E-04
  2.49762522887742814E-04  2.51014462743614456E-04  2.52272677974127901E-04
  2.53537200034730393E-04  2.54808060538538406E-04  2.56085291257131557E-04
  2.57368924121343420E-04  2.58658991222063511E-04  2.59955524811035477E-04
  2.61258557301667540E-04  2.62568121269839356E-04  2.63884249454717933E-04
  2.65206974759577289E-04  2.66536330252618056E-04  2.67872349167797756E-04
  2.69215064905657837E-04  2.70564511034162680E-04  2.71920721289534758E-04
  2.73283729577102161E-04  2.74653569972142537E-04  2.76030276720736574E-04
  2.77413884240625716E-04  2.78804427122069059E-04  2.80201940128712017E-04
  2.81606458198451566E-04  2.83018016444313582E-04  2.84436650155327252E-04
  2.85862394797408695E-04  2.87295286014249251E-04  2.88735359628203010E-04
  2.90182651641186264E-04  2.91637198235573708E-04  2.93099035775107059E-04
  2.94568200805799820E-04  2.96044730056855383E-04  2.97528660441581335E-04
  2.99020029058314125E-04  3.00518873191347893E-04  3.02025230311862933E-04
  3.03539138078866776E-04  3.05060634340131431E-04  3.06589757133143685E-04
  3.08126544686051942E-04  3.09671035418626226E-04  3.11223267943214665E-04
  3.12783281065710653E-04  3.14351113786524676E-04  3.15926805301555268E-04
  3.17510395003173522E-04  3.19101922481203261E-04  3.20701427523915525E-04
  3.22308950119019097E-04  3.23924530454662032E-04  3.25548208920437964E-04
  3.27180026108392027E-04  3.28820022814039950E-04  3.30468240037383736E-04
  3.32124718983940954E-04  3.33789501065770336E-04  3.35462627902511853E-04
  3.37144141322422619E-04  3.38834083363426122E-04  3.40532496274161575E-04
  3.42239422515039382E-04  3.43954904759305664E-04  3.45678985894104941E-04
  3.47411709021555712E-04  3.49153117459826421E-04  3.50903254744218678E-04
  3.52662164628255749E-04  3.54429891084776351E-04  3.56206478307034358E-04
  3.57991970709801814E-04  3.59786412930483061E-04  3.61589849830226153E-04
  3.63402326495047823E-04  3.65223888236959051E-04  3.67054580595098379E-04
  3.68894449336869940E-04  3.70743540459088220E-04  3.72601900189127903E-04
  3.74469574986078331E-04  3.76346611541907071E-04  3.78233056782625757E-04
  3.80128957869463682E-04  3.82034362200046711E-04  3.83949317409582362E-04
  3.85873871372051022E-04  3.87808072201400848E-04  3.89751968252754805E-04
  3.91705608123614295E-04  3.93669040655078291E-04  3.95642314933062191E-04
  3.97625480289525845E-04  3.99618586303706453E-04  4.01621682803358080E-04
  4.03634819865998000E-04  4.05658047820156510E-04  4.07691417246639268E-04
  4.09734978979786808E-04  4.11788784108749184E-04  4.13852883978761644E-04
  4.15927330192428430E-04  4.18012174611012927E-04  4.20107469355734150E-04
  4.22213266809070339E-04  4.24329619616066608E-04  4.26456580685653829E-04
  4.28594203191969459E-04  4.30742540575687529E-04  4.32901646545354548E-04
  4.35071575078732121E-04  4.37252380424147107E-04  4.39444117101845462E-04
  4.41646839905359908E-04  4.43860603902874020E-04  4.46085464438603497E-04
  4.48321477134177551E-04  4.50568697890030095E-04  4.52827182886796954E-04
  4.55096988586720834E-04  4.57378171735062732E-04  4.59670789361518988E-04
  4.61974898781651296E-04  4.64290557598313999E-04  4.66617823703098413E-04
  4.68956755277778498E-04  4.71307410795765371E-04  4.73669849023569407E-04
  4.76044129022269334E-04  4.78430310148989239E-04  4.80828452058380731E-04
  4.83238614704116802E-04  4.85660858340389225E-04  4.88095243523414997E-04
  4.90541831112950534E-04  4.93000682273812916E-04  4.95471858477409752E-04
  4.97955421503273486E-04  5.00451433440610833E-04  5.02959956689849066E-04
  5.05481053964200303E-04  5.08014788291227858E-04  5.10561223014421796E-04
  5.13120421794782851E-04  5.15692448612413814E-04  5.18277367768119599E-04
  5.20875243885012191E-04  5.23486141910131848E-04  5.26110127116063758E-04
  5.28747265102575076E-04  5.31397621798252937E-04  5.34061263462152764E-04
  5.36738256685454830E-04  5.39428668393129146E-04  5.42132565845609049E-04
  5.44850016640470729E-04  5.47581088714126107E-04  5.50325850343519178E-04
  5.53084370147833627E-04  5.55856717090208257E-04  5.58642960479461084E-04
  5.61443169971822327E-04  5.64257415572673796E-04  5.67085767638303992E-04
  5.69928296877660404E-04  5.72785074354122494E-04  5.75656171487276113E-04
  5.78541660054698956E-04  5.81441612193755574E-04  5.84356100403400506E-04
  5.87285197545991283E-04  5.90228976849107505E-04  5.93187511907387042E-04
  5.96160876684358990E-04  5.99149145514298086E-04  6.02152393104080758E-04
  6.05170694535053203E-04  6.08204125264908248E-04  6.11252761129572300E-04
  6.14316678345101287E-04  6.17395953509583973E-04  6.20490663605060568E-04
  6.23600885999444471E-04  6.26726698448457574E-04  6.29868179097574019E-04
  6.33025406483973493E-04  6.36198459538505701E-04  6.39387417587660681E-04
  6.42592360355557883E-04  6.45813367965931777E-04  6.49050520944141097E-04
  6.52303900219178626E-04  6.55573587125695832E-04  6.58859663406035755E-04
  6.62162211212276395E-04  6.65481313108285495E-04  6.68817052071781718E-04
  6.72169511496415232E-04  6.75538775193844387E-04  6.78924927395837662E-04
  6.82328052756376582E-04  6.85748236353772404E-04  6.89185563692793109E-04
  6.92640120706801226E-04  6.96111993759902618E-04  6.99601269649103392E-04
  7.03108035606482855E-04  7.06632379301372761E-04  7.10174388842549028E-04
  7.13734152780434619E-04  7.17311760109313481E-04  7.20907300269555654E-04
  7.24520863149850621E-04  7.28152539089461036E-04  7.31802418880472772E-04
  7.35470593770071201E-04  7.39157155462819644E-04  7.42862196122952572E-04
  7.46585808376679203E-04  7.50328085314500015E-04  7.54089120493534092E-04
  7.57869007939854494E-04  7.61667842150847265E-04  7.65485718097563285E-04
  7.69322731227100806E-04  7.73178977464987981E-04  7.77054553217581558E-04
  7.80949555374477167E-04  7.84864081310931647E-04  7.88798228890297943E-04
  7.92752096466469119E-04  7.96725782886341122E-04  8.00719387492281401E-04
  8.04733010124613246E-04  8.08766751124111410E-04  8.12820711334510948E-04
  8.16894992105029073E-04  8.20989695292894924E-04  8.25104923265904599E-04
  8.29240778904969354E-04  8.33397365606696437E-04  8.37574787285969707E-04
  8.41773148378549010E-04  8.45992553843680065E-04  8.50233109166719436E-04
  8.54494920361771734E-04  8.58778093974336488E-04  8.63082737083980156E-04
  8.67408957307002509E-04  8.71756862799135095E-04  8.76126562258241668E-04
  8.80518164927036385E-04  8.84931780595814592E-04  8.89367519605198018E-04
  8.93825492848893534E-04  8.98305811776462957E-04  9.02808588396113577E-04
  9.07333935277495392E-04  9.11881965554516244E-04  9.16452792928169739E-04
  9.21046531669378462E-04  9.25663296621850960E-04  9.30303203204949016E-04
  9.34966367416582150E-04  9.39652905836096150E-04  9.44362935627196293E-04
  9.49096574540872744E-04  9.53853940918344815E-04  9.58635153694019858E-04
  9.63440332398466152E-04  9.68269597161402584E-04  9.73123068714697019E-04
  9.78000868395394575E-04  9.82903118148738654E-04  9.87829940531229468E-04
  9.92781458713683012E-04  9.97757796484312039E-04  1.00275907825182037E-03
  1.00778542904851045E-03  1.01283697453341732E-03  1.01791384099543763E-03
  1.02301615535650117E-03  1.02814404517472978E-03  1.03329763864763702E-03
  1.03847706461532817E-03  1.04368245256372194E-03  1.04891393262778929E-03
  1.05417163559480141E-03  1.05945569290761014E-03  1.06476623666792048E-03
  1.07010339963960438E-03  1.07546731525201382E-03  1.08085811760331844E-03
  1.08627594146385896E-03  1.09172092227951081E-03  1.09719319617508247E-03
  1.10269289995770185E-03  1.10822017112025407E-03  1.11377514784480325E-03
  1.11935796900605776E-03  1.12496877417483736E-03  1.13060770362156341E-03
  1.13627489831976693E-03  1.14197049994960750E-03  1.14769465090142639E-03
  1.15344749427929169E-03  1.15922917390459137E-03  1.16503983431961436E-03
  1.17087962079117443E-03  1.17674867931423770E-03  1.18264715661557272E-03
  1.18857520015742068E-03  1.19453295814117523E-03  1.20052057951110084E-03
  1.20653821395804036E-03  1.21258601192316957E-03  1.21866412460175226E-03
  1.22477270394692208E-03  1.23091190267348208E-03  1.23708187426171674E-03
  1.24328277296124152E-03  1.24951475379484248E-03  1.25577797256236942E-03
  1.26207258584461451E-03  1.26839875100723883E-03  1.27475662620470066E-03
  1.28114637038421130E-03  1.28756814328970931E-03  1.29402210546584800E-03
  1.30050841826202259E-03  1.30702724383638630E-03  1.31357874515992262E-03
  1.32016308602050264E-03  1.32678043102699150E-03  1.33343094561335935E-03
  1.34011479604281706E-03  1.34683214941197461E-03  1.35358317365501290E-03
  1.36036803754789387E-03  1.36718691071256509E-03  1.37403996362121176E-03
  1.38092736760051351E-03  1.38784929483592892E-03  1.39480591837600008E-03
  1.40179741213667438E-03  1.40882395090566499E-03  1.41588571034680219E-03
  1.42298286700444452E-03  1.43011559830787441E-03  1.43728408257574728E-03
  1.44448849902054327E-03  1.45172902775304847E-03  1.45900584978685978E-03
  1.46631914704290303E-03  1.47366910235399609E-03  1.48105589946939870E-03
  1.48847972305942941E-03  1.49594075872006016E-03  1.50343919297757237E-03
  1.51097521329321351E-03  1.51854900806788350E-03  1.52616076664684771E-03
  1.53381067932446304E-03  1.54149893734895028E-03  1.54922573292715624E-03
  1.55699125922937449E-03  1.56479571039416657E-03  1.57263928153321842E-03
  1.58052216873621858E-03  1.58844456907575294E-03  1.59640668061224872E-03
  1.60440870239890324E-03  1.61245083448668361E-03  1.62053327792930670E-03
  1.62865623478828064E-03  1.63681990813795033E-03  1.64502450207057471E-03
  1.65327022170143052E-03  1.66155727317393392E-03  1.66988586366480902E-03
  1.67825620138924636E-03  1.68666849560613046E-03  1.69512295662325053E-03
  1.70361979580257398E-03  1.71215922556552285E-03  1.72074145939828571E-03
  1.72936671185715718E-03  1.73803519857389341E-03  1.74674713626111968E-03
  1.75550274271772731E-03  1.76430223683433549E-03  1.77314583859875538E-03
  1.78203376910149162E-03  1.79096625054127150E-03  1.79994350623059111E-03
  1.80896576060131679E-03  1.81803323921027131E-03  1.82714616874489889E-03
  1.83630477702890712E-03  1.84550929302798226E-03  1.85475994685550317E-03
  1.86405696977829782E-03  1.87340059422242506E-03  1.88279105377897734E-03
  1.89222858320993968E-03  1.90171341845403246E-03  1.91124579663263768E-03
  1.92082595605570132E-03  1.93045413622770930E-03  1.94013057785366746E-03
  1.94985552284512062E-03  1.95962921432620181E-03  1.96945189663970139E-03
  1.97932381535319670E-03  1.98924521726516349E-03  1.99921635041116867E-03
  2.00923746407006025E-03  2.01930880877020146E-03  2.02943063629573575E-03
  2.03960319969287386E-03  2.04982675327623721E-03  2.06010155263519059E-03
  2.07042785464026059E-03  2.08080591744952935E-03  2.09123600051511031E-03
  2.10171836458962263E-03  2.11225327173271415E-03  2.12284098531761393E-03
  2.13348177003770808E-03  2.14417589191317559E-03  2.15492361829761319E-03
  2.16572521788474743E-03  2.17658096071512552E-03  2.18749111818288509E-03
  2.19845596304253134E-03  2.20947576941575618E-03  2.22055081279829564E-03
  2.23168137006680501E-03  2.24286771948580335E-03  2.25411014071460287E-03
  2.26540891481432196E-03  2.27676432425490171E-03  2.28817665292216929E-03
  2.29964618612493819E-03  2.31117321060212919E-03  2.32275801452996302E-03
  2.33440088752913302E-03  2.34610212067207918E-03  2.35786200649023290E-03
  2.36968083898135388E-03  2.38155891361687072E-03  2.39349652734926772E-03
  2.40549397861951168E-03  2.41755156736450346E-03  2.42966959502459749E-03
  2.44184836455110842E-03  2.45408818041391698E-03  2.46638934860905117E-03
  2.47875217666635849E-03  2.49117697365718429E-03  2.50366405020209992E-03
  2.51621371847867261E-03  2.52882629222925563E-03  2.54150208676885833E-03
  2.55424141899299835E-03  2.56704460738564665E-03  2.57991197202717994E-03
  2.59284383460238466E-03  2.60584051840850048E-03  2.61890234836329285E-03
  2.63202965101320052E-03  2.64522275454146362E-03  2.65848198877636707E-03
  2.67180768519945057E-03  2.68520017695382052E-03  2.69865979885246850E-03
  2.71218688738664344E-03  2.72578178073426504E-03  2.73944481876836838E-03
  2.75317634306562493E-03  2.76697669691484830E-03  2.78084622532561278E-03
  2.79478527503684371E-03  2.80879419452551276E-03  2.82287333401533627E-03
  2.83702304548553476E-03  2.85124368267963444E-03  2.86553560111429918E-03
  2.87989915808824302E-03  2.89433471269113151E-03  2.90884262581258407E-03
  2.92342326015118453E-03  2.93807698022355030E-03  2.95280415237344921E-03
  2.96760514478094407E-03  2.98248032747162667E-03  2.99743007232582863E-03
  3.01245475308796039E-03  3.02755474537581533E-03  3.04273042668998977E-03
  3.05798217642330727E-03  3.07331037587030547E-03  3.08871540823677177E-03
  3.10419765864930865E-03  3.11975751416499478E-03  3.13539536378101705E-03
  3.15111159844444141E-03  3.16690661106194425E-03  3.18278079650966689E-03
  3.19873455164307275E-03  3.21476827530686998E-03  3.23088236834498908E-03
  3.24707723361058629E-03  3.26335327597614827E-03  3.27971090234357304E-03
  3.29615052165437494E-03  3.31267254489989258E-03  3.32927738513156841E-03
  3.34596545747127506E-03  3.36273717912168209E-03  3.37959296937671546E-03
  3.39653324963199799E-03  3.41355844339543031E-03  3.43066897629773450E-03
  3.44786527610312652E-03  3.46514777271999782E-03  3.48251689821166320E-03
  3.49997308680716863E-03  3.51751677491212843E-03  3.53514840111967144E-03
  3.55286840622135846E-03  3.57067723321825283E-03  3.58857532733194767E-03
  3.60656313601573049E-03  3.62464110896575575E-03  3.64280969813228885E-03
  3.66106935773100831E-03  3.67942054425434567E-03  3.69786371648293203E-03
  3.71639933549702470E-03  3.73502786468806738E-03  3.75374976977026036E-03
  3.77256551879220524E-03  3.79147558214861131E-03  3.81048043259203705E-03
  3.82958054524474732E-03  3.84877639761053948E-03  3.86806846958673550E-03
  3.88745724347613029E-03  3.90694320399908365E-03  3.92652683830562420E-03
  3.94620863598762854E-03  3.96598908909106835E-03  3.98586869212829049E-03
  4.00584794209042031E-03  4.02592733845973279E-03  4.04610738322219894E-03
  4.06638858087997584E-03  4.08677143846406660E-03  4.10725646554697260E-03
  4.12784417425543591E-03  4.14853507928325191E-03  4.16932969790411150E-03
  4.19022854998457941E-03  4.21123215799703524E-03  4.23234104703277495E-03
  4.25355574481512538E-03  4.27487678171263596E-03  4.29630469075234327E-03
  4.31784000763307807E-03  4.33948327073889906E-03  4.36123502115249532E-03
  4.38309580266877611E-03  4.40506616180840610E-03  4.42714664783151138E-03
  4.44933781275139422E-03  4.47164021134833188E-03  4.49405440118345531E-03
  4.51658094261266595E-03  4.53922039880068958E-03  4.56197333573509205E-03
  4.58484032224049879E-03  4.60782192999275187E-03  4.63091873353324579E-03
  4.65413131028327189E-03  4.67746024055845817E-03  4.70090610758328031E-03
  4.72446949750562287E-03  4.74815099941147765E-03  4.77195120533961247E-03
  4.79587071029642133E-03  4.81991011227077184E-03  4.84407001224896726E-03
  4.86835101422976747E-03  4.89275372523947580E-03  4.91727875534715524E-03
  4.94192671767981762E-03  4.96669822843782277E-03  4.99159390691021696E-03
  5.01661437549026298E-03  5.04176025969097896E-03  5.06703218816077858E-03
  5.09243079269919557E-03  5.11795670827265136E-03  5.14361057303038341E-03
  5.16939302832032915E-03  5.19530471870523116E-03  5.22134629197868513E-03
  5.24751839918138462E-03  5.27382169461737115E-03  5.30025683587040213E-03
  5.32682448382038997E-03  5.35352530265990282E-03  5.38035995991082046E-03
  5.40732912644095991E-03  5.43443347648089100E-03  5.46167368764077874E-03
  5.48905044092731949E-03  5.51656442076077676E-03  5.54421631499206393E-03
  5.57200681491999781E-03  5.59993661530850360E-03  5.62800641440406538E-03
  5.65621691395310801E-03  5.68456881921959502E-03  5.71306283900263352E-03
  5.74169968565420210E-03  5.77048007509696481E-03  5.79940472684214135E-03
  5.82847436400755082E-03  5.85768971333561726E-03  5.88705150521161551E-03
  5.91656047368185715E-03  5.94621735647209420E-03  5.97602289500594273E-03
  6.00597783442341753E-03  6.03608292359956999E-03  6.06633891516318146E-03
  6.09674656551563790E-03  6.12730663484976640E-03  6.15801988716889719E-03
  6.18888709030593689E-03  6.21990901594257281E-03  6.25108643962856651E-03
  6.28242014080111766E-03  6.31391090280440919E-03  6.34555951290910990E-03
  6.37736676233214249E-03  6.40933344625638311E-03  6.44146036385059937E-03
  6.47374831828940490E-03  6.50619811677334223E-03  6.53881057054906973E-03
  6.57158649492961284E-03  6.60452670931481120E-03  6.63763203721171643E-03
  6.67090330625527434E-03  6.70434134822892568E-03  6.73794699908546700E-03
  6.77172109896792117E-03  6.80566449223054312E-03  6.83977802745993312E-03
  6.87406255749625512E-03  6.90851893945453217E-03  6.94314803474611452E-03
  6.97795070910018755E-03  7.01292783258542461E-03  7.04808027963173180E-03
  7.08340892905211846E-03  7.11891466406465966E-03  7.15459837231458527E-03
  7.19046094589644805E-03  7.22650328137646250E-03  7.26272627981489147E-03
  7.29913084678858286E-03  7.33571789241360770E-03  7.37248833136801198E-03
  7.40944308291468373E-03  7.44658307092433813E-03  7.48390922389861445E-03
  7.52142247499327024E-03  7.55912376204154104E-03  7.59701402757756699E-03
  7.63509421885996166E-03  7.67336528789548927E-03  7.71182819146286856E-03
  7.75048389113669207E-03  7.78933335331147281E-03  7.82837754922577345E-03
  7.86761745498653492E-03  7.90705405159344149E-03  7.94668832496346449E-03
  7.98652126595550231E-03  8.02655387039515403E-03  8.06678713909961438E-03
  8.10722207790270585E-03  8.14785969767998879E-03  8.18870101437408314E-03
  8.22974704902003015E-03  8.27099882777083614E-03  8.31245738192311866E-03
  8.35412374794288967E-03  8.39599896749147062E-03  8.43808408745153060E-03
  8.48038015995326855E-03  8.52288824240068389E-03  8.56560939749806058E-03
  8.60854469327649967E-03  8.65169520312063407E-03  8.69506200579545606E-03
  8.73864618547329046E-03  8.78244883176089973E-03  8.82647103972672951E-03
  8.87071390992825830E-03  8.91517854843955349E-03  8.95986606687888994E-03
  9.00477758243655932E-03  9.04991421790278874E-03  9.09527710169581553E-03
  9.14086736789009729E-03  9.18668615624467291E-03  9.23273461223161895E-03
  9.27901388706474373E-03  9.32552513772832645E-03  9.37226952700605763E-03
  9.41924822351010264E-03  9.46646240171032313E-03  9.51391324196363027E-03
  9.56160193054351321E-03  9.60952965966965084E-03  9.65769762753777676E-03
  9.70610703834959808E-03  9.75475910234290325E-03  9.80365503582182780E-03
  9.85279606118725712E-03  9.90218340696738183E-03  9.95181830784841980E-03
  1.00017020047054872E-02  1.00518357446335860E-02  1.01022207809788340E-02
  1.01528583733697629E-02  1.02037497877488226E-02  1.02548962964040223E-02
  1.03062991780007406E-02  1.03579597176136958E-02  1.04098792067590790E-02
  1.04620589434268035E-02  1.05145002321130124E-02  1.05672043838526547E-02
  1.06201727162522699E-02  1.06734065535229253E-02  1.07269072265133263E-02
  1.07806760727430836E-02  1.08347144364361620E-02  1.08890236685544508E-02
  1.09436051268315907E-02  1.09984601758068810E-02  1.10535901868594032E-02
  1.11089965382423061E-02  1.11646806151172590E-02  1.12206438095890839E-02
  1.12768875207405576E-02  1.13334131546673975E-02  1.13902221245133772E-02
  1.14473158505057106E-02  1.15046957599905224E-02  1.15623632874685359E-02
  1.16203198746309445E-02  1.16785669703954424E-02  1.17371060309424610E-02
  1.17959385197515722E-02  1.18550659076380373E-02  1.19144896727896472E-02
  1.19742113008036218E-02  1.20342322847237747E-02  1.20945541250778287E-02
  1.21551783299149348E-02  1.22161064148433723E-02  1.22773399030684481E-02
  1.23388803254305332E-02  1.24007292204434058E-02  1.24628881343326614E-02
  1.25253586210743850E-02  1.25881422424339983E-02  1.26512405680053053E-02
  1.27146551752497314E-02  1.27783876495357607E-02  1.28424395841785811E-02
  1.29068125804798726E-02  1.29715082477679083E-02  1.30365282034377358E-02
  1.31018740729916365E-02  1.31675474900797510E-02  1.32335500965409282E-02
  1.32998835424437672E-02  1.33665494861278829E-02  1.34335495942453139E-02
  1.35008855418022652E-02  1.35685590122009338E-02  1.36365716972816041E-02
  1.37049252973649449E-02  1.37736215212945177E-02  1.38426620864795010E-02
  1.39120487189376314E-02  1.39817831533383084E-02  1.40518671330460369E-02
  1.41223024101639616E-02  1.41930907455776762E-02  1.42642339089992555E-02
  1.43357336790114892E-02  1.44075918431123499E-02  1.44798101977596863E-02
  1.45523905484161355E-02  1.46253347095942222E-02  1.46986445049017839E-02
  1.47723217670875234E-02  1.48463683380868315E-02  1.49207860690678418E-02
  1.49955768204777032E-02  1.50707424620890977E-02  1.51462848730469918E-02
  1.52222059419155689E-02  1.52985075667255183E-02  1.53751916550214328E-02
  1.54522601239095152E-02  1.55297149001055023E-02  1.56075579199828306E-02
  1.56857911296210545E-02  1.57644164848545001E-02  1.58434359513211151E-02
  1.59228515045116981E-02  1.60026651298192067E-02  1.60828788225884332E-02
  1.61634945881658741E-02  1.62445144419498706E-02  1.63259404094409852E-02
  1.64077745262926449E-02  1.64900188383620486E-02  1.65726754017612547E-02
  1.66557462829086643E-02  1.67392335585806323E-02  1.68231393159634021E-02
  1.69074656527052787E-02  1.69922146769690662E-02  1.70773885074847927E-02
  1.71629892736026718E-02  1.72490191153462785E-02  1.73354801834661593E-02
  1.74223746394935146E-02  1.75097046557942740E-02  1.75974724156233928E-02
  1.76856801131794368E-02  1.77743299536594415E-02  1.78634241533140517E-02
  1.79529649395028662E-02  1.80429545507502162E-02  1.81333952368010753E-02
  1.82242892586773030E-02  1.83156388887341787E-02  1.84074464107172146E-02
  1.84997141198192418E-02  1.85924443227377910E-02  1.86856393377327797E-02
  1.87793014946844097E-02  1.88734331351514927E-02  1.89680366124299511E-02
  1.90631142916116367E-02  1.91586685496434837E-02  1.92547017753869204E-02
  1.93512163696775916E-02  1.94482147453854011E-02  1.95456993274747519E-02
  1.96436725530652993E-02  1.97421368714927811E-02  1.98410947443702877E-02
  1.99405486456497964E-02  2.00405010616840143E-02  2.01409544912885506E-02
  2.02419114458043982E-02  2.03433744491606401E-02  2.04453460379376631E-02
  2.05478287614304957E-02  2.06508251817125663E-02  2.07543378736997422E-02
  2.08583694252147157E-02  2.09629224370516988E-02  2.10679995230414231E-02
  2.11736033101165358E-02  2.12797364383771753E-02  2.13864015611570958E-02
  2.14936013450899230E-02  2.16013384701758335E-02  2.17096156298485707E-02
  2.18184355310427625E-02  2.19278008942616100E-02  2.20377144536449063E-02
  2.21481789570373254E-02  2.22591971660572180E-02  2.23707718561656013E-02
  2.24829058167355308E-02  2.25956018511218638E-02  2.27088627767313318E-02
  2.28226914250929704E-02  2.29370906419289408E-02  2.30520632872255812E-02
  2.31676122353050296E-02  2.32837403748970100E-02  2.34004506092110563E-02
  2.35177458560091070E-02  2.36356290476784428E-02  2.37541031313049968E-02
  2.38731710687470240E-02  2.39928358367091851E-02  2.41131004268168754E-02
  2.42339678456911234E-02  2.43554411150237043E-02  2.44775232716526701E-02
  2.46002173676383024E-02  2.47235264703393881E-02  2.48474536624899156E-02
  2.49720020422761653E-02  2.50971747234140785E-02  2.52229748352272229E-02
  2.53494055227249451E-02  2.54764699466810164E-02  2.56041712837126560E-02
  2.57325127263599400E-02  2.58614974831656227E-02  2.59911287787553576E-02
  2.61214098539182468E-02  2.62523439656879715E-02  2.63839343874241530E-02
  2.65161844088941806E-02  2.66490973363554852E-02  2.67826764926381751E-02
  2.69169252172281118E-02  2.70518468663504021E-02  2.71874448130533276E-02
  2.73237224472925692E-02  2.74606831760161076E-02  2.75983304232492871E-02